Written by lammps_data.py made by Marshall Hunt

496 atoms
744 bonds
1488 angles
1 atom types
1 bond types
1 angle types
0.0 63.73947 xlo xhi
0.0 55.2 ylo yhi

Atom Type Labels

1                    Si                   

Bond Type Labels

1                    Si-Si                

Angle Type Labels

1                    Si-Si-Si             

Masses

Si                   27.9769265           

Atoms # molecular

1                    1                    Si                   0.995929             0.575                0                    
2                    2                    Si                   4.979646             0.575                0                    
3                    3                    Si                   8.963363             0.575                0                    
4                    4                    Si                   12.94708             0.575                0                    
5                    5                    Si                   16.930797            0.575                0                    
6                    6                    Si                   20.914514            0.575                0                    
7                    7                    Si                   24.89823             0.575                0                    
8                    8                    Si                   28.881947            0.575                0                    
9                    9                    Si                   32.865664            0.575                0                    
10                   10                   Si                   36.849381            0.575                0                    
11                   11                   Si                   40.833098            0.575                0                    
12                   12                   Si                   44.816815            0.575                0                    
13                   13                   Si                   48.800532            0.575                0                    
14                   14                   Si                   52.784248            0.575                0                    
15                   15                   Si                   56.767965            0.575                0                    
16                   16                   Si                   60.751682            0.575                0                    
17                   17                   Si                   0.995929             2.875                0                    
18                   18                   Si                   4.979646             2.875                0                    
19                   19                   Si                   8.963363             2.875                0                    
20                   20                   Si                   12.94708             2.875                0                    
21                   21                   Si                   16.930797            2.875                0                    
22                   22                   Si                   20.914514            2.875                0                    
23                   23                   Si                   24.89823             2.875                0                    
24                   24                   Si                   28.881947            2.875                0                    
25                   25                   Si                   32.865664            2.875                0                    
26                   26                   Si                   36.849381            2.875                0                    
27                   27                   Si                   40.833098            2.875                0                    
28                   28                   Si                   44.816815            2.875                0                    
29                   29                   Si                   48.800532            2.875                0                    
30                   30                   Si                   52.784248            2.875                0                    
31                   31                   Si                   56.767965            2.875                0                    
32                   32                   Si                   60.751682            2.875                0                    
33                   33                   Si                   2.987788             4.025                0                    
34                   34                   Si                   6.971505             4.025                0                    
35                   35                   Si                   10.955221            4.025                0                    
36                   36                   Si                   14.938938            4.025                0                    
37                   37                   Si                   18.922655            4.025                0                    
38                   38                   Si                   22.906372            4.025                0                    
39                   39                   Si                   26.890089            4.025                0                    
40                   40                   Si                   30.873806            4.025                0                    
41                   41                   Si                   34.857523            4.025                0                    
42                   42                   Si                   38.841239            4.025                0                    
43                   43                   Si                   42.824956            4.025                0                    
44                   44                   Si                   46.808673            4.025                0                    
45                   45                   Si                   50.79239             4.025                0                    
46                   46                   Si                   54.776107            4.025                0                    
47                   47                   Si                   58.759824            4.025                0                    
48                   48                   Si                   62.743541            4.025                0                    
49                   49                   Si                   2.987788             6.325                0                    
50                   50                   Si                   6.971505             6.325                0                    
51                   51                   Si                   10.955221            6.325                0                    
52                   52                   Si                   14.938938            6.325                0                    
53                   53                   Si                   18.922655            6.325                0                    
54                   54                   Si                   22.906372            6.325                0                    
55                   55                   Si                   26.890089            6.325                0                    
56                   56                   Si                   30.873806            6.325                0                    
57                   57                   Si                   34.857523            6.325                0                    
58                   58                   Si                   38.841239            6.325                0                    
59                   59                   Si                   42.824956            6.325                0                    
60                   60                   Si                   46.808673            6.325                0                    
61                   61                   Si                   50.79239             6.325                0                    
62                   62                   Si                   54.776107            6.325                0                    
63                   63                   Si                   58.759824            6.325                0                    
64                   64                   Si                   62.743541            6.325                0                    
65                   65                   Si                   0.995929             7.475                0                    
66                   66                   Si                   4.979646             7.475                0                    
67                   67                   Si                   8.963363             7.475                0                    
68                   68                   Si                   12.94708             7.475                0                    
69                   69                   Si                   16.930797            7.475                0                    
70                   70                   Si                   20.914514            7.475                0                    
71                   71                   Si                   24.89823             7.475                0                    
72                   72                   Si                   28.881947            7.475                0                    
73                   73                   Si                   32.865664            7.475                0                    
74                   74                   Si                   36.849381            7.475                0                    
75                   75                   Si                   40.833098            7.475                0                    
76                   76                   Si                   44.816815            7.475                0                    
77                   77                   Si                   48.800532            7.475                0                    
78                   78                   Si                   52.784248            7.475                0                    
79                   79                   Si                   56.767965            7.475                0                    
80                   80                   Si                   60.751682            7.475                0                    
81                   81                   Si                   0.995929             9.775                0                    
82                   82                   Si                   4.979646             9.775                0                    
83                   83                   Si                   8.963363             9.775                0                    
84                   84                   Si                   12.94708             9.775                0                    
85                   85                   Si                   16.930797            9.775                0                    
86                   86                   Si                   20.914514            9.775                0                    
87                   87                   Si                   24.89823             9.775                0                    
88                   88                   Si                   28.881947            9.775                0                    
89                   89                   Si                   32.865664            9.775                0                    
90                   90                   Si                   36.849381            9.775                0                    
91                   91                   Si                   40.833098            9.775                0                    
92                   92                   Si                   44.816815            9.775                0                    
93                   93                   Si                   48.800532            9.775                0                    
94                   94                   Si                   52.784248            9.775                0                    
95                   95                   Si                   56.767965            9.775                0                    
96                   96                   Si                   60.751682            9.775                0                    
97                   97                   Si                   2.987788             10.925               0                    
98                   98                   Si                   6.971505             10.925               0                    
99                   99                   Si                   10.955221            10.925               0                    
100                  100                  Si                   14.938938            10.925               0                    
101                  101                  Si                   18.922655            10.925               0                    
102                  102                  Si                   22.906372            10.925               0                    
103                  103                  Si                   26.890089            10.925               0                    
104                  104                  Si                   30.873806            10.925               0                    
105                  105                  Si                   34.857523            10.925               0                    
106                  106                  Si                   38.841239            10.925               0                    
107                  107                  Si                   42.824956            10.925               0                    
108                  108                  Si                   46.808673            10.925               0                    
109                  109                  Si                   50.79239             10.925               0                    
110                  110                  Si                   54.776107            10.925               0                    
111                  111                  Si                   58.759824            10.925               0                    
112                  112                  Si                   62.743541            10.925               0                    
113                  113                  Si                   2.987788             13.225               0                    
114                  114                  Si                   6.971505             13.225               0                    
115                  115                  Si                   10.955221            13.225               0                    
116                  116                  Si                   14.938938            13.225               0                    
117                  117                  Si                   18.922655            13.225               0                    
118                  118                  Si                   22.906372            13.225               0                    
119                  119                  Si                   26.890089            13.225               0                    
120                  120                  Si                   30.873806            13.225               0                    
121                  121                  Si                   34.857523            13.225               0                    
122                  122                  Si                   38.841239            13.225               0                    
123                  123                  Si                   42.824956            13.225               0                    
124                  124                  Si                   46.808673            13.225               0                    
125                  125                  Si                   50.79239             13.225               0                    
126                  126                  Si                   54.776107            13.225               0                    
127                  127                  Si                   58.759824            13.225               0                    
128                  128                  Si                   62.743541            13.225               0                    
129                  129                  Si                   0.995929             14.375               0                    
130                  130                  Si                   4.979646             14.375               0                    
131                  131                  Si                   8.963363             14.375               0                    
132                  132                  Si                   12.94708             14.375               0                    
133                  133                  Si                   16.930797            14.375               0                    
134                  134                  Si                   20.914514            14.375               0                    
135                  135                  Si                   24.89823             14.375               0                    
136                  136                  Si                   28.881947            14.375               0                    
137                  137                  Si                   32.865664            14.375               0                    
138                  138                  Si                   36.849381            14.375               0                    
139                  139                  Si                   40.833098            14.375               0                    
140                  140                  Si                   44.816815            14.375               0                    
141                  141                  Si                   48.800532            14.375               0                    
142                  142                  Si                   52.784248            14.375               0                    
143                  143                  Si                   56.767965            14.375               0                    
144                  144                  Si                   60.751682            14.375               0                    
145                  145                  Si                   0.995929             16.675               0                    
146                  146                  Si                   4.979646             16.675               0                    
147                  147                  Si                   8.963363             16.675               0                    
148                  148                  Si                   12.94708             16.675               0                    
149                  149                  Si                   16.930797            16.675               0                    
150                  150                  Si                   20.914514            16.675               0                    
151                  151                  Si                   24.89823             16.675               0                    
152                  152                  Si                   28.881947            16.675               0                    
153                  153                  Si                   32.865664            16.675               0                    
154                  154                  Si                   36.849381            16.675               0                    
155                  155                  Si                   40.833098            16.675               0                    
156                  156                  Si                   44.816815            16.675               0                    
157                  157                  Si                   48.800532            16.675               0                    
158                  158                  Si                   52.784248            16.675               0                    
159                  159                  Si                   56.767965            16.675               0                    
160                  160                  Si                   60.751682            16.675               0                    
161                  161                  Si                   2.987788             17.825               0                    
162                  162                  Si                   6.971505             17.825               0                    
163                  163                  Si                   10.955221            17.825               0                    
164                  164                  Si                   14.938938            17.825               0                    
165                  165                  Si                   18.922655            17.825               0                    
166                  166                  Si                   22.906372            17.825               0                    
167                  167                  Si                   26.890089            17.825               0                    
168                  168                  Si                   30.873806            17.825               0                    
169                  169                  Si                   34.857523            17.825               0                    
170                  170                  Si                   38.841239            17.825               0                    
171                  171                  Si                   42.824956            17.825               0                    
172                  172                  Si                   46.808673            17.825               0                    
173                  173                  Si                   50.79239             17.825               0                    
174                  174                  Si                   54.776107            17.825               0                    
175                  175                  Si                   58.759824            17.825               0                    
176                  176                  Si                   62.743541            17.825               0                    
177                  177                  Si                   2.987788             20.125               0                    
178                  178                  Si                   6.971505             20.125               0                    
179                  179                  Si                   10.955221            20.125               0                    
180                  180                  Si                   14.938938            20.125               0                    
181                  181                  Si                   18.922655            20.125               0                    
182                  182                  Si                   22.906372            20.125               0                    
183                  183                  Si                   26.890089            20.125               0                    
184                  184                  Si                   30.873806            20.125               0                    
185                  185                  Si                   34.857523            20.125               0                    
186                  186                  Si                   38.841239            20.125               0                    
187                  187                  Si                   42.824956            20.125               0                    
188                  188                  Si                   46.808673            20.125               0                    
189                  189                  Si                   50.79239             20.125               0                    
190                  190                  Si                   54.776107            20.125               0                    
191                  191                  Si                   58.759824            20.125               0                    
192                  192                  Si                   62.743541            20.125               0                    
193                  193                  Si                   0.995929             21.275               0                    
194                  194                  Si                   4.979646             21.275               0                    
195                  195                  Si                   8.963363             21.275               0                    
196                  196                  Si                   12.94708             21.275               0                    
197                  197                  Si                   16.930797            21.275               0                    
198                  198                  Si                   20.914514            21.275               0                    
199                  199                  Si                   24.89823             21.275               0                    
200                  200                  Si                   28.881947            21.275               0                    
201                  201                  Si                   32.865664            21.275               0                    
202                  202                  Si                   36.849381            21.275               0                    
203                  203                  Si                   40.833098            21.275               0                    
204                  204                  Si                   44.816815            21.275               0                    
205                  205                  Si                   48.800532            21.275               0                    
206                  206                  Si                   52.784248            21.275               0                    
207                  207                  Si                   56.767965            21.275               0                    
208                  208                  Si                   60.751682            21.275               0                    
209                  209                  Si                   0.995929             23.575               0                    
210                  210                  Si                   4.979646             23.575               0                    
211                  211                  Si                   8.963363             23.575               0                    
212                  212                  Si                   12.94708             23.575               0                    
213                  213                  Si                   16.930797            23.575               0                    
214                  214                  Si                   20.914514            23.575               0                    
215                  215                  Si                   24.89823             23.575               0                    
216                  216                  Si                   28.881947            23.575               0                    
217                  217                  Si                   36.849381            23.575               0                    
218                  218                  Si                   40.833098            23.575               0                    
219                  219                  Si                   44.816815            23.575               0                    
220                  220                  Si                   48.800532            23.575               0                    
221                  221                  Si                   52.784248            23.575               0                    
222                  222                  Si                   56.767965            23.575               0                    
223                  223                  Si                   60.751682            23.575               0                    
224                  224                  Si                   2.987788             24.725               0                    
225                  225                  Si                   6.971505             24.725               0                    
226                  226                  Si                   10.955221            24.725               0                    
227                  227                  Si                   14.938938            24.725               0                    
228                  228                  Si                   18.922655            24.725               0                    
229                  229                  Si                   22.906372            24.725               0                    
230                  230                  Si                   26.890089            24.725               0                    
231                  231                  Si                   38.841239            24.725               0                    
232                  232                  Si                   42.824956            24.725               0                    