Written by lammps_data.py made by Marshall Hunt

72 atoms
108 bonds
216 angles
1 atom types
1 bond types
1 angle types
0.0 13.799999999999999 xlo xhi
0.0 11.951150572225252 ylo yhi

Atom Type Labels

1                    Si                   

Bond Type Labels

1                    Si-Si                

Angle Type Labels

1                    Si-Si-Si             

Masses

Si                   28.1                 

Atoms # molecular

1                    1                    Si                   1.15                 0.3319764047840348   0                    
2                    2                    Si                   3.4499999999999997   0.3319764047840348   0                    
3                    3                    Si                   5.75                 0.3319764047840348   0                    
4                    4                    Si                   8.049999999999999    0.3319764047840348   0                    
5                    5                    Si                   10.35                0.3319764047840348   0                    
6                    6                    Si                   12.649999999999999   0.3319764047840348   0                    
7                    7                    Si                   1.15                 1.659882023920174    0                    
8                    8                    Si                   3.4499999999999997   1.659882023920174    0                    
9                    9                    Si                   5.75                 1.659882023920174    0                    
10                   10                   Si                   8.049999999999999    1.659882023920174    0                    
11                   11                   Si                   10.35                1.659882023920174    0                    
12                   12                   Si                   12.649999999999999   1.659882023920174    0                    
13                   13                   Si                   2.3                  2.3238348334882435   0                    
14                   14                   Si                   4.6                  2.3238348334882435   0                    
15                   15                   Si                   6.8999999999999995   2.3238348334882435   0                    
16                   16                   Si                   9.2                  2.3238348334882435   0                    
17                   17                   Si                   11.5                 2.3238348334882435   0                    
18                   18                   Si                   13.799999999999999   2.3238348334882435   0                    
19                   19                   Si                   2.3                  3.6517404526243826   0                    
20                   20                   Si                   4.6                  3.6517404526243826   0                    
21                   21                   Si                   6.8999999999999995   3.6517404526243826   0                    
22                   22                   Si                   9.2                  3.6517404526243826   0                    
23                   23                   Si                   11.5                 3.6517404526243826   0                    
24                   24                   Si                   13.799999999999999   3.6517404526243826   0                    
25                   25                   Si                   1.15                 4.315693262192451    0                    
26                   26                   Si                   3.4499999999999997   4.315693262192451    0                    
27                   27                   Si                   5.75                 4.315693262192451    0                    
28                   28                   Si                   8.049999999999999    4.315693262192451    0                    
29                   29                   Si                   10.35                4.315693262192451    0                    
30                   30                   Si                   12.649999999999999   4.315693262192451    0                    
31                   31                   Si                   1.15                 5.643598881328591    0                    
32                   32                   Si                   3.4499999999999997   5.643598881328591    0                    
33                   33                   Si                   5.75                 5.643598881328591    0                    
34                   34                   Si                   8.049999999999999    5.643598881328591    0                    
35                   35                   Si                   10.35                5.643598881328591    0                    
36                   36                   Si                   12.649999999999999   5.643598881328591    0                    
37                   37                   Si                   2.3                  6.307551690896662    0                    
38                   38                   Si                   4.6                  6.307551690896662    0                    
39                   39                   Si                   6.8999999999999995   6.307551690896662    0                    
40                   40                   Si                   9.2                  6.307551690896662    0                    
41                   41                   Si                   11.5                 6.307551690896662    0                    
42                   42                   Si                   13.799999999999999   6.307551690896662    0                    
43                   43                   Si                   2.3                  7.635457310032799    0                    
44                   44                   Si                   4.6                  7.635457310032799    0                    
45                   45                   Si                   6.8999999999999995   7.635457310032799    0                    
46                   46                   Si                   9.2                  7.635457310032799    0                    
47                   47                   Si                   11.5                 7.635457310032799    0                    
48                   48                   Si                   13.799999999999999   7.635457310032799    0                    
49                   49                   Si                   1.15                 8.29941011960087     0                    
50                   50                   Si                   3.4499999999999997   8.29941011960087     0                    
51                   51                   Si                   5.75                 8.29941011960087     0                    
52                   52                   Si                   8.049999999999999    8.29941011960087     0                    
53                   53                   Si                   10.35                8.29941011960087     0                    
54                   54                   Si                   12.649999999999999   8.29941011960087     0                    
55                   55                   Si                   1.15                 9.627315738737007    0                    
56                   56                   Si                   3.4499999999999997   9.627315738737007    0                    
57                   57                   Si                   5.75                 9.627315738737007    0                    
58                   58                   Si                   8.049999999999999    9.627315738737007    0                    
59                   59                   Si                   10.35                9.627315738737007    0                    
60                   60                   Si                   12.649999999999999   9.627315738737007    0                    
61                   61                   Si                   2.3                  10.291268548305078   0                    
62                   62                   Si                   4.6                  10.291268548305078   0                    
63                   63                   Si                   6.8999999999999995   10.291268548305078   0                    
64                   64                   Si                   9.2                  10.291268548305078   0                    
65                   65                   Si                   11.5                 10.291268548305078   0                    
66                   66                   Si                   13.799999999999999   10.291268548305078   0                    
67                   67                   Si                   2.3                  11.619174167441217   0                    
68                   68                   Si                   4.6                  11.619174167441217   0                    
69                   69                   Si                   6.8999999999999995   11.619174167441217   0                    
70                   70                   Si                   9.2                  11.619174167441217   0                    
71                   71                   Si                   11.5                 11.619174167441217   0                    
72                   72                   Si                   13.799999999999999   11.619174167441217   0                    

Bonds

1                    Si-Si                1                    7                    
2                    Si-Si                1                    67                   
3                    Si-Si                1                    72                   
4                    Si-Si                2                    8                    
5                    Si-Si                2                    68                   
6                    Si-Si                2                    67                   
7                    Si-Si                3                    9                    
8                    Si-Si                3                    69                   
9                    Si-Si                3                    68                   
10                   Si-Si                4                    10                   
11                   Si-Si                4                    70                   
12                   Si-Si                4                    69                   
13                   Si-Si                5                    11                   
14                   Si-Si                5                    71                   
15                   Si-Si                5                    70                   
16                   Si-Si                6                    12                   
17                   Si-Si                6                    72                   
18                   Si-Si                6                    71                   
19                   Si-Si                7                    18                   
20                   Si-Si                7                    13                   
21                   Si-Si                8                    13                   
22                   Si-Si                8                    14                   
23                   Si-Si                9                    14                   
24                   Si-Si                9                    15                   
25                   Si-Si                10                   15                   
26                   Si-Si                10                   16                   
27                   Si-Si                11                   16                   
28                   Si-Si                11                   17                   
29                   Si-Si                12                   17                   
30                   Si-Si                12                   18                   
31                   Si-Si                13                   19                   
32                   Si-Si                14                   20                   
33                   Si-Si                15                   21                   
34                   Si-Si                16                   22                   
35                   Si-Si                17                   23                   
36                   Si-Si                18                   24                   
37                   Si-Si                19                   25                   
38                   Si-Si                19                   26                   
39                   Si-Si                20                   26                   
40                   Si-Si                20                   27                   
41                   Si-Si                21                   27                   
42                   Si-Si                21                   28                   
43                   Si-Si                22                   28                   
44                   Si-Si                22                   29                   
45                   Si-Si                23                   29                   
46                   Si-Si                23                   30                   
47                   Si-Si                24                   30                   
48                   Si-Si                24                   25                   
49                   Si-Si                25                   31                   
50                   Si-Si                26                   32                   
51                   Si-Si                27                   33                   
52                   Si-Si                28                   34                   
53                   Si-Si                29                   35                   
54                   Si-Si                30                   36                   
55                   Si-Si                31                   42                   
56                   Si-Si                31                   37                   
57                   Si-Si                32                   37                   
58                   Si-Si                32                   38                   
59                   Si-Si                33                   38                   
60                   Si-Si                33                   39                   
61                   Si-Si                34                   39                   
62                   Si-Si                34                   40                   
63                   Si-Si                35                   40                   
64                   Si-Si                35                   41                   
65                   Si-Si                36                   41                   
66                   Si-Si                36                   42                   
67                   Si-Si                37                   43                   
68                   Si-Si                38                   44                   
69                   Si-Si                39                   45                   
70                   Si-Si                40                   46                   
71                   Si-Si                41                   47                   
72                   Si-Si                42                   48                   
73                   Si-Si                43                   49                   
74                   Si-Si                43                   50                   
75                   Si-Si                44                   50                   
76                   Si-Si                44                   51                   
77                   Si-Si                45                   51                   
78                   Si-Si                45                   52                   
79                   Si-Si                46                   52                   
80                   Si-Si                46                   53                   
81                   Si-Si                47                   53                   
82                   Si-Si                47                   54                   
83                   Si-Si                48                   54                   
84                   Si-Si                48                   49                   
85                   Si-Si                49                   55                   
86                   Si-Si                50                   56                   
87                   Si-Si                51                   57                   
88                   Si-Si                52                   58                   
89                   Si-Si                53                   59                   
90                   Si-Si                54                   60                   
91                   Si-Si                55                   66                   
92                   Si-Si                55                   61                   
93                   Si-Si                56                   61                   
94                   Si-Si                56                   62                   
95                   Si-Si                57                   62                   
96                   Si-Si                57                   63                   
97                   Si-Si                58                   63                   
98                   Si-Si                58                   64                   
99                   Si-Si                59                   64                   
100                  Si-Si                59                   65                   
101                  Si-Si                60                   65                   
102                  Si-Si                60                   66                   
103                  Si-Si                61                   67                   
104                  Si-Si                62                   68                   
105                  Si-Si                63                   69                   
106                  Si-Si                64                   70                   
107                  Si-Si                65                   71                   
108                  Si-Si                66                   72                   

Angles

1                    Si-Si-Si             72                   1                    67                   
2                    Si-Si-Si             67                   1                    7                    
3                    Si-Si-Si             7                    1                    72                   
4                    Si-Si-Si             68                   2                    8                    
5                    Si-Si-Si             8                    2                    67                   
6                    Si-Si-Si             67                   2                    68                   
7                    Si-Si-Si             69                   3                    9                    
8                    Si-Si-Si             9                    3                    68                   
9                    Si-Si-Si             68                   3                    69                   
10                   Si-Si-Si             70                   4                    10                   
11                   Si-Si-Si             10                   4                    69                   
12                   Si-Si-Si             69                   4                    70                   
13                   Si-Si-Si             71                   5                    11                   
14                   Si-Si-Si             11                   5                    70                   
15                   Si-Si-Si             70                   5                    71                   
16                   Si-Si-Si             72                   6                    12                   
17                   Si-Si-Si             12                   6                    71                   
18                   Si-Si-Si             71                   6                    72                   
19                   Si-Si-Si             1                    7                    18                   
20                   Si-Si-Si             18                   7                    13                   
21                   Si-Si-Si             13                   7                    1                    
22                   Si-Si-Si             2                    8                    14                   
23                   Si-Si-Si             14                   8                    13                   
24                   Si-Si-Si             13                   8                    2                    
25                   Si-Si-Si             3                    9                    15                   
26                   Si-Si-Si             15                   9                    14                   
27                   Si-Si-Si             14                   9                    3                    
28                   Si-Si-Si             4                    10                   16                   
29                   Si-Si-Si             16                   10                   15                   
30                   Si-Si-Si             15                   10                   4                    
31                   Si-Si-Si             5                    11                   17                   
32                   Si-Si-Si             17                   11                   16                   
33                   Si-Si-Si             16                   11                   5                    
34                   Si-Si-Si             6                    12                   18                   
35                   Si-Si-Si             18                   12                   17                   
36                   Si-Si-Si             17                   12                   6                    
37                   Si-Si-Si             7                    13                   8                    
38                   Si-Si-Si             8                    13                   19                   
39                   Si-Si-Si             19                   13                   7                    
40                   Si-Si-Si             8                    14                   9                    
41                   Si-Si-Si             9                    14                   20                   
42                   Si-Si-Si             20                   14                   8                    
43                   Si-Si-Si             9                    15                   10                   
44                   Si-Si-Si             10                   15                   21                   
45                   Si-Si-Si             21                   15                   9                    
46                   Si-Si-Si             10                   16                   11                   
47                   Si-Si-Si             11                   16                   22                   
48                   Si-Si-Si             22                   16                   10                   
49                   Si-Si-Si             11                   17                   12                   
50                   Si-Si-Si             12                   17                   23                   
51                   Si-Si-Si             23                   17                   11                   
52                   Si-Si-Si             7                    18                   12                   
53                   Si-Si-Si             12                   18                   24                   
54                   Si-Si-Si             24                   18                   7                    
55                   Si-Si-Si             13                   19                   26                   
56                   Si-Si-Si             26                   19                   25                   
57                   Si-Si-Si             25                   19                   13                   
58                   Si-Si-Si             14                   20                   27                   
59                   Si-Si-Si             27                   20                   26                   
60                   Si-Si-Si             26                   20                   14                   
61                   Si-Si-Si             15                   21                   28                   
62                   Si-Si-Si             28                   21                   27                   
63                   Si-Si-Si             27                   21                   15                   
64                   Si-Si-Si             16                   22                   29                   
65                   Si-Si-Si             29                   22                   28                   
66                   Si-Si-Si             28                   22                   16                   
67                   Si-Si-Si             17                   23                   30                   
68                   Si-Si-Si             30                   23                   29                   
69                   Si-Si-Si             29                   23                   17                   
70                   Si-Si-Si             18                   24                   30                   
71                   Si-Si-Si             30                   24                   25                   
72                   Si-Si-Si             25                   24                   18                   
73                   Si-Si-Si             19                   25                   24                   
74                   Si-Si-Si             24                   25                   31                   
75                   Si-Si-Si             31                   25                   19                   
76                   Si-Si-Si             19                   26                   20                   
77                   Si-Si-Si             20                   26                   32                   
78                   Si-Si-Si             32                   26                   19                   
79                   Si-Si-Si             20                   27                   21                   
80                   Si-Si-Si             21                   27                   33                   
81                   Si-Si-Si             33                   27                   20                   
82                   Si-Si-Si             21                   28                   22                   
83                   Si-Si-Si             22                   28                   34                   
84                   Si-Si-Si             34                   28                   21                   
85                   Si-Si-Si             22                   29                   23                   
86                   Si-Si-Si             23                   29                   35                   
87                   Si-Si-Si             35                   29                   22                   
88                   Si-Si-Si             23                   30                   24                   
89                   Si-Si-Si             24                   30                   36                   
90                   Si-Si-Si             36                   30                   23                   
91                   Si-Si-Si             25                   31                   42                   
92                   Si-Si-Si             42                   31                   37                   
93                   Si-Si-Si             37                   31                   25                   
94                   Si-Si-Si             26                   32                   38                   
95                   Si-Si-Si             38                   32                   37                   
96                   Si-Si-Si             37                   32                   26                   
97                   Si-Si-Si             27                   33                   39                   
98                   Si-Si-Si             39                   33                   38                   
99                   Si-Si-Si             38                   33                   27                   
100                  Si-Si-Si             28                   34                   40                   
101                  Si-Si-Si             40                   34                   39                   
102                  Si-Si-Si             39                   34                   28                   
103                  Si-Si-Si             29                   35                   41                   
104                  Si-Si-Si             41                   35                   40                   
105                  Si-Si-Si             40                   35                   29                   