Written by lammps_data.py made by Marshall Hunt

512 atoms
768 bonds
1536 angles
1 atom types
1 bond types
1 angle types
0.0 63.73946971853468 xlo xhi
0.0 55.199999999999996 ylo yhi

Atom Type Labels

1                    Si                   

Bond Type Labels

1                    Si-Si                

Angle Type Labels

1                    Si-Si-Si             

Masses

Si                   27.9769265           

Atoms # molecular

1                    1                    Si                   0.9959292143521046   0.575                0                    
2                    2                    Si                   4.979646071760521    0.575                0                    
3                    3                    Si                   8.96336292916894     0.575                0                    
4                    4                    Si                   12.947079786577357   0.575                0                    
5                    5                    Si                   16.930796643985776   0.575                0                    
6                    6                    Si                   20.91451350139419    0.575                0                    
7                    7                    Si                   24.898230358802603   0.575                0                    
8                    8                    Si                   28.881947216211024   0.575                0                    
9                    9                    Si                   32.86566407361944    0.575                0                    
10                   10                   Si                   36.849380931027866   0.575                0                    
11                   11                   Si                   40.83309778843628    0.575                0                    
12                   12                   Si                   44.8168146458447     0.575                0                    
13                   13                   Si                   48.80053150325311    0.575                0                    
14                   14                   Si                   52.78424836066153    0.575                0                    
15                   15                   Si                   56.76796521806995    0.575                0                    
16                   16                   Si                   60.751682075478364   0.575                0                    
17                   17                   Si                   0.9959292143521046   2.875                0                    
18                   18                   Si                   4.979646071760521    2.875                0                    
19                   19                   Si                   8.96336292916894     2.875                0                    
20                   20                   Si                   12.947079786577357   2.875                0                    
21                   21                   Si                   16.930796643985776   2.875                0                    
22                   22                   Si                   20.91451350139419    2.875                0                    
23                   23                   Si                   24.898230358802603   2.875                0                    
24                   24                   Si                   28.881947216211024   2.875                0                    
25                   25                   Si                   32.86566407361944    2.875                0                    
26                   26                   Si                   36.849380931027866   2.875                0                    
27                   27                   Si                   40.83309778843628    2.875                0                    
28                   28                   Si                   44.8168146458447     2.875                0                    
29                   29                   Si                   48.80053150325311    2.875                0                    
30                   30                   Si                   52.78424836066153    2.875                0                    
31                   31                   Si                   56.76796521806995    2.875                0                    
32                   32                   Si                   60.751682075478364   2.875                0                    
33                   33                   Si                   2.987787643056313    4.0249999999999995   0                    
34                   34                   Si                   6.97150450046473     4.0249999999999995   0                    
35                   35                   Si                   10.955221357873148   4.0249999999999995   0                    
36                   36                   Si                   14.938938215281564   4.0249999999999995   0                    
37                   37                   Si                   18.92265507268998    4.0249999999999995   0                    
38                   38                   Si                   22.906371930098402   4.0249999999999995   0                    
39                   39                   Si                   26.89008878750682    4.0249999999999995   0                    
40                   40                   Si                   30.873805644915233   4.0249999999999995   0                    
41                   41                   Si                   34.857522502323654   4.0249999999999995   0                    
42                   42                   Si                   38.841239359732064   4.0249999999999995   0                    
43                   43                   Si                   42.82495621714048    4.0249999999999995   0                    
44                   44                   Si                   46.808673074548906   4.0249999999999995   0                    
45                   45                   Si                   50.79238993195732    4.0249999999999995   0                    
46                   46                   Si                   54.776106789365734   4.0249999999999995   0                    
47                   47                   Si                   58.75982364677415    4.0249999999999995   0                    
48                   48                   Si                   62.74354050418257    4.0249999999999995   0                    
49                   49                   Si                   2.987787643056313    6.324999999999999    0                    
50                   50                   Si                   6.97150450046473     6.324999999999999    0                    
51                   51                   Si                   10.955221357873148   6.324999999999999    0                    
52                   52                   Si                   14.938938215281564   6.324999999999999    0                    
53                   53                   Si                   18.92265507268998    6.324999999999999    0                    
54                   54                   Si                   22.906371930098402   6.324999999999999    0                    
55                   55                   Si                   26.89008878750682    6.324999999999999    0                    
56                   56                   Si                   30.873805644915233   6.324999999999999    0                    
57                   57                   Si                   34.857522502323654   6.324999999999999    0                    
58                   58                   Si                   38.841239359732064   6.324999999999999    0                    
59                   59                   Si                   42.82495621714048    6.324999999999999    0                    
60                   60                   Si                   46.808673074548906   6.324999999999999    0                    
61                   61                   Si                   50.79238993195732    6.324999999999999    0                    
62                   62                   Si                   54.776106789365734   6.324999999999999    0                    
63                   63                   Si                   58.75982364677415    6.324999999999999    0                    
64                   64                   Si                   62.74354050418257    6.324999999999999    0                    
65                   65                   Si                   0.9959292143521046   7.475                0                    
66                   66                   Si                   4.979646071760521    7.475                0                    
67                   67                   Si                   8.96336292916894     7.475                0                    
68                   68                   Si                   12.947079786577357   7.475                0                    
69                   69                   Si                   16.930796643985776   7.475                0                    
70                   70                   Si                   20.91451350139419    7.475                0                    
71                   71                   Si                   24.898230358802603   7.475                0                    
72                   72                   Si                   28.881947216211024   7.475                0                    
73                   73                   Si                   32.86566407361944    7.475                0                    
74                   74                   Si                   36.849380931027866   7.475                0                    
75                   75                   Si                   40.83309778843628    7.475                0                    
76                   76                   Si                   44.8168146458447     7.475                0                    
77                   77                   Si                   48.80053150325311    7.475                0                    
78                   78                   Si                   52.78424836066153    7.475                0                    
79                   79                   Si                   56.76796521806995    7.475                0                    
80                   80                   Si                   60.751682075478364   7.475                0                    
81                   81                   Si                   0.9959292143521046   9.774999999999999    0                    
82                   82                   Si                   4.979646071760521    9.774999999999999    0                    
83                   83                   Si                   8.96336292916894     9.774999999999999    0                    
84                   84                   Si                   12.947079786577357   9.774999999999999    0                    
85                   85                   Si                   16.930796643985776   9.774999999999999    0                    
86                   86                   Si                   20.91451350139419    9.774999999999999    0                    
87                   87                   Si                   24.898230358802603   9.774999999999999    0                    
88                   88                   Si                   28.881947216211024   9.774999999999999    0                    
89                   89                   Si                   32.86566407361944    9.774999999999999    0                    
90                   90                   Si                   36.849380931027866   9.774999999999999    0                    
91                   91                   Si                   40.83309778843628    9.774999999999999    0                    
92                   92                   Si                   44.8168146458447     9.774999999999999    0                    
93                   93                   Si                   48.80053150325311    9.774999999999999    0                    
94                   94                   Si                   52.78424836066153    9.774999999999999    0                    
95                   95                   Si                   56.76796521806995    9.774999999999999    0                    
96                   96                   Si                   60.751682075478364   9.774999999999999    0                    
97                   97                   Si                   2.987787643056313    10.924999999999999   0                    
98                   98                   Si                   6.97150450046473     10.924999999999999   0                    
99                   99                   Si                   10.955221357873148   10.924999999999999   0                    
100                  100                  Si                   14.938938215281564   10.924999999999999   0                    
101                  101                  Si                   18.92265507268998    10.924999999999999   0                    
102                  102                  Si                   22.906371930098402   10.924999999999999   0                    
103                  103                  Si                   26.89008878750682    10.924999999999999   0                    
104                  104                  Si                   30.873805644915233   10.924999999999999   0                    
105                  105                  Si                   34.857522502323654   10.924999999999999   0                    
106                  106                  Si                   38.841239359732064   10.924999999999999   0                    
107                  107                  Si                   42.82495621714048    10.924999999999999   0                    
108                  108                  Si                   46.808673074548906   10.924999999999999   0                    
109                  109                  Si                   50.79238993195732    10.924999999999999   0                    
110                  110                  Si                   54.776106789365734   10.924999999999999   0                    
111                  111                  Si                   58.75982364677415    10.924999999999999   0                    
112                  112                  Si                   62.74354050418257    10.924999999999999   0                    
113                  113                  Si                   2.987787643056313    13.225               0                    
114                  114                  Si                   6.97150450046473     13.225               0                    
115                  115                  Si                   10.955221357873148   13.225               0                    
116                  116                  Si                   14.938938215281564   13.225               0                    
117                  117                  Si                   18.92265507268998    13.225               0                    
118                  118                  Si                   22.906371930098402   13.225               0                    
119                  119                  Si                   26.89008878750682    13.225               0                    
120                  120                  Si                   30.873805644915233   13.225               0                    
121                  121                  Si                   34.857522502323654   13.225               0                    
122                  122                  Si                   38.841239359732064   13.225               0                    
123                  123                  Si                   42.82495621714048    13.225               0                    
124                  124                  Si                   46.808673074548906   13.225               0                    
125                  125                  Si                   50.79238993195732    13.225               0                    
126                  126                  Si                   54.776106789365734   13.225               0                    
127                  127                  Si                   58.75982364677415    13.225               0                    
128                  128                  Si                   62.74354050418257    13.225               0                    
129                  129                  Si                   0.9959292143521046   14.374999999999998   0                    
130                  130                  Si                   4.979646071760521    14.374999999999998   0                    
131                  131                  Si                   8.96336292916894     14.374999999999998   0                    
132                  132                  Si                   12.947079786577357   14.374999999999998   0                    
133                  133                  Si                   16.930796643985776   14.374999999999998   0                    
134                  134                  Si                   20.91451350139419    14.374999999999998   0                    
135                  135                  Si                   24.898230358802603   14.374999999999998   0                    
136                  136                  Si                   28.881947216211024   14.374999999999998   0                    
137                  137                  Si                   32.86566407361944    14.374999999999998   0                    
138                  138                  Si                   36.849380931027866   14.374999999999998   0                    
139                  139                  Si                   40.83309778843628    14.374999999999998   0                    
140                  140                  Si                   44.8168146458447     14.374999999999998   0                    
141                  141                  Si                   48.80053150325311    14.374999999999998   0                    
142                  142                  Si                   52.78424836066153    14.374999999999998   0                    
143                  143                  Si                   56.76796521806995    14.374999999999998   0                    
144                  144                  Si                   60.751682075478364   14.374999999999998   0                    
145                  145                  Si                   0.9959292143521046   16.674999999999997   0                    
146                  146                  Si                   4.979646071760521    16.674999999999997   0                    
147                  147                  Si                   8.96336292916894     16.674999999999997   0                    
148                  148                  Si                   12.947079786577357   16.674999999999997   0                    
149                  149                  Si                   16.930796643985776   16.674999999999997   0                    
150                  150                  Si                   20.91451350139419    16.674999999999997   0                    
151                  151                  Si                   24.898230358802603   16.674999999999997   0                    
152                  152                  Si                   28.881947216211024   16.674999999999997   0                    
153                  153                  Si                   32.86566407361944    16.674999999999997   0                    
154                  154                  Si                   36.849380931027866   16.674999999999997   0                    
155                  155                  Si                   40.83309778843628    16.674999999999997   0                    
156                  156                  Si                   44.8168146458447     16.674999999999997   0                    
157                  157                  Si                   48.80053150325311    16.674999999999997   0                    
158                  158                  Si                   52.78424836066153    16.674999999999997   0                    
159                  159                  Si                   56.76796521806995    16.674999999999997   0                    
160                  160                  Si                   60.751682075478364   16.674999999999997   0                    
161                  161                  Si                   2.987787643056313    17.825               0                    
162                  162                  Si                   6.97150450046473     17.825               0                    
163                  163                  Si                   10.955221357873148   17.825               0                    
164                  164                  Si                   14.938938215281564   17.825               0                    
165                  165                  Si                   18.92265507268998    17.825               0                    
166                  166                  Si                   22.906371930098402   17.825               0                    
167                  167                  Si                   26.89008878750682    17.825               0                    
168                  168                  Si                   30.873805644915233   17.825               0                    
169                  169                  Si                   34.857522502323654   17.825               0                    
170                  170                  Si                   38.841239359732064   17.825               0                    
171                  171                  Si                   42.82495621714048    17.825               0                    
172                  172                  Si                   46.808673074548906   17.825               0                    
173                  173                  Si                   50.79238993195732    17.825               0                    
174                  174                  Si                   54.776106789365734   17.825               0                    
175                  175                  Si                   58.75982364677415    17.825               0                    
176                  176                  Si                   62.74354050418257    17.825               0                    
177                  177                  Si                   2.987787643056313    20.125               0                    
178                  178                  Si                   6.97150450046473     20.125               0                    
179                  179                  Si                   10.955221357873148   20.125               0                    
180                  180                  Si                   14.938938215281564   20.125               0                    
181                  181                  Si                   18.92265507268998    20.125               0                    
182                  182                  Si                   22.906371930098402   20.125               0                    
183                  183                  Si                   26.89008878750682    20.125               0                    
184                  184                  Si                   30.873805644915233   20.125               0                    
185                  185                  Si                   34.857522502323654   20.125               0                    
186                  186                  Si                   38.841239359732064   20.125               0                    
187                  187                  Si                   42.82495621714048    20.125               0                    
188                  188                  Si                   46.808673074548906   20.125               0                    
189                  189                  Si                   50.79238993195732    20.125               0                    
190                  190                  Si                   54.776106789365734   20.125               0                    
191                  191                  Si                   58.75982364677415    20.125               0                    
192                  192                  Si                   62.74354050418257    20.125               0                    
193                  193                  Si                   0.9959292143521046   21.275               0                    
194                  194                  Si                   4.979646071760521    21.275               0                    
195                  195                  Si                   8.96336292916894     21.275               0                    
196                  196                  Si                   12.947079786577357   21.275               0                    
197                  197                  Si                   16.930796643985776   21.275               0                    
198                  198                  Si                   20.91451350139419    21.275               0                    
199                  199                  Si                   24.898230358802603   21.275               0                    
200                  200                  Si                   28.881947216211024   21.275               0                    
201                  201                  Si                   32.86566407361944    21.275               0                    
202                  202                  Si                   36.849380931027866   21.275               0                    
203                  203                  Si                   40.83309778843628    21.275               0                    
204                  204                  Si                   44.8168146458447     21.275               0                    
205                  205                  Si                   48.80053150325311    21.275               0                    
206                  206                  Si                   52.78424836066153    21.275               0                    
207                  207                  Si                   56.76796521806995    21.275               0                    
208                  208                  Si                   60.751682075478364   21.275               0                    
209                  209                  Si                   0.9959292143521046   23.575               0                    
210                  210                  Si                   4.979646071760521    23.575               0                    
211                  211                  Si                   8.96336292916894     23.575               0                    
212                  212                  Si                   12.947079786577357   23.575               0                    
213                  213                  Si                   16.930796643985776   23.575               0                    
214                  214                  Si                   20.91451350139419    23.575               0                    
215                  215                  Si                   24.898230358802603   23.575               0                    
216                  216                  Si                   28.881947216211024   23.575               0                    
217                  217                  Si                   32.86566407361944    23.575               0                    
218                  218                  Si                   36.849380931027866   23.575               0                    
219                  219                  Si                   40.83309778843628    23.575               0                    
220                  220                  Si                   44.8168146458447     23.575               0                    
221                  221                  Si                   48.80053150325311    23.575               0                    
222                  222                  Si                   52.78424836066153    23.575               0                    
223                  223                  Si                   56.76796521806995    23.575               0                    
224                  224                  Si                   60.751682075478364   23.575               0                    
225                  225                  Si                   2.987787643056313    24.724999999999998   0                    
226                  226                  Si                   6.97150450046473     24.724999999999998   0                    
227                  227                  Si                   10.955221357873148   24.724999999999998   0                    
228                  228                  Si                   14.938938215281564   24.724999999999998   0                    
229                  229                  Si                   18.92265507268998    24.724999999999998   0                    
230                  230                  Si                   22.906371930098402   24.724999999999998   0                    
231                  231                  Si                   26.89008878750682    24.724999999999998   0                    
232                  232                  Si                   30.873805644915233   24.724999999999998   0                    