Written by lammps_data.py made by Marshall Hunt

200 atoms
300 bonds
600 angles
1 atom types
1 bond types
1 angle types
0.0 39.83716857408417 xlo xhi
0.0 34.5 ylo yhi

Atom Type Labels

1                    Si                   

Bond Type Labels

1                    Si-Si                

Angle Type Labels

1                    Si-Si-Si             

Masses

Si                   28.1                 

Atoms # molecular

1                    1                    Si                   0.9959292143521046   0.575                0                    
2                    2                    Si                   4.979646071760521    0.575                0                    
3                    3                    Si                   8.96336292916894     0.575                0                    
4                    4                    Si                   12.947079786577357   0.575                0                    
5                    5                    Si                   16.930796643985776   0.575                0                    
6                    6                    Si                   20.91451350139419    0.575                0                    
7                    7                    Si                   24.898230358802603   0.575                0                    
8                    8                    Si                   28.881947216211024   0.575                0                    
9                    9                    Si                   32.86566407361944    0.575                0                    
10                   10                   Si                   36.849380931027866   0.575                0                    
11                   11                   Si                   0.9959292143521046   2.875                0                    
12                   12                   Si                   4.979646071760521    2.875                0                    
13                   13                   Si                   8.96336292916894     2.875                0                    
14                   14                   Si                   12.947079786577357   2.875                0                    
15                   15                   Si                   16.930796643985776   2.875                0                    
16                   16                   Si                   20.91451350139419    2.875                0                    
17                   17                   Si                   24.898230358802603   2.875                0                    
18                   18                   Si                   28.881947216211024   2.875                0                    
19                   19                   Si                   32.86566407361944    2.875                0                    
20                   20                   Si                   36.849380931027866   2.875                0                    
21                   21                   Si                   2.987787643056313    4.0249999999999995   0                    
22                   22                   Si                   6.97150450046473     4.0249999999999995   0                    
23                   23                   Si                   10.955221357873148   4.0249999999999995   0                    
24                   24                   Si                   14.938938215281564   4.0249999999999995   0                    
25                   25                   Si                   18.92265507268998    4.0249999999999995   0                    
26                   26                   Si                   22.906371930098402   4.0249999999999995   0                    
27                   27                   Si                   26.89008878750682    4.0249999999999995   0                    
28                   28                   Si                   30.873805644915233   4.0249999999999995   0                    
29                   29                   Si                   34.857522502323654   4.0249999999999995   0                    
30                   30                   Si                   38.841239359732064   4.0249999999999995   0                    
31                   31                   Si                   2.987787643056313    6.324999999999999    0                    
32                   32                   Si                   6.97150450046473     6.324999999999999    0                    
33                   33                   Si                   10.955221357873148   6.324999999999999    0                    
34                   34                   Si                   14.938938215281564   6.324999999999999    0                    
35                   35                   Si                   18.92265507268998    6.324999999999999    0                    
36                   36                   Si                   22.906371930098402   6.324999999999999    0                    
37                   37                   Si                   26.89008878750682    6.324999999999999    0                    
38                   38                   Si                   30.873805644915233   6.324999999999999    0                    
39                   39                   Si                   34.857522502323654   6.324999999999999    0                    
40                   40                   Si                   38.841239359732064   6.324999999999999    0                    
41                   41                   Si                   0.9959292143521046   7.475                0                    
42                   42                   Si                   4.979646071760521    7.475                0                    
43                   43                   Si                   8.96336292916894     7.475                0                    
44                   44                   Si                   12.947079786577357   7.475                0                    
45                   45                   Si                   16.930796643985776   7.475                0                    
46                   46                   Si                   20.91451350139419    7.475                0                    
47                   47                   Si                   24.898230358802603   7.475                0                    
48                   48                   Si                   28.881947216211024   7.475                0                    
49                   49                   Si                   32.86566407361944    7.475                0                    
50                   50                   Si                   36.849380931027866   7.475                0                    
51                   51                   Si                   0.9959292143521046   9.774999999999999    0                    
52                   52                   Si                   4.979646071760521    9.774999999999999    0                    
53                   53                   Si                   8.96336292916894     9.774999999999999    0                    
54                   54                   Si                   12.947079786577357   9.774999999999999    0                    
55                   55                   Si                   16.930796643985776   9.774999999999999    0                    
56                   56                   Si                   20.91451350139419    9.774999999999999    0                    
57                   57                   Si                   24.898230358802603   9.774999999999999    0                    
58                   58                   Si                   28.881947216211024   9.774999999999999    0                    
59                   59                   Si                   32.86566407361944    9.774999999999999    0                    
60                   60                   Si                   36.849380931027866   9.774999999999999    0                    
61                   61                   Si                   2.987787643056313    10.924999999999999   0                    
62                   62                   Si                   6.97150450046473     10.924999999999999   0                    
63                   63                   Si                   10.955221357873148   10.924999999999999   0                    
64                   64                   Si                   14.938938215281564   10.924999999999999   0                    
65                   65                   Si                   18.92265507268998    10.924999999999999   0                    
66                   66                   Si                   22.906371930098402   10.924999999999999   0                    
67                   67                   Si                   26.89008878750682    10.924999999999999   0                    
68                   68                   Si                   30.873805644915233   10.924999999999999   0                    
69                   69                   Si                   34.857522502323654   10.924999999999999   0                    
70                   70                   Si                   38.841239359732064   10.924999999999999   0                    
71                   71                   Si                   2.987787643056313    13.225               0                    
72                   72                   Si                   6.97150450046473     13.225               0                    
73                   73                   Si                   10.955221357873148   13.225               0                    
74                   74                   Si                   14.938938215281564   13.225               0                    
75                   75                   Si                   18.92265507268998    13.225               0                    
76                   76                   Si                   22.906371930098402   13.225               0                    
77                   77                   Si                   26.89008878750682    13.225               0                    
78                   78                   Si                   30.873805644915233   13.225               0                    
79                   79                   Si                   34.857522502323654   13.225               0                    
80                   80                   Si                   38.841239359732064   13.225               0                    
81                   81                   Si                   0.9959292143521046   14.374999999999998   0                    
82                   82                   Si                   4.979646071760521    14.374999999999998   0                    
83                   83                   Si                   8.96336292916894     14.374999999999998   0                    
84                   84                   Si                   12.947079786577357   14.374999999999998   0                    
85                   85                   Si                   16.930796643985776   14.374999999999998   0                    
86                   86                   Si                   20.91451350139419    14.374999999999998   0                    
87                   87                   Si                   24.898230358802603   14.374999999999998   0                    
88                   88                   Si                   28.881947216211024   14.374999999999998   0                    
89                   89                   Si                   32.86566407361944    14.374999999999998   0                    
90                   90                   Si                   36.849380931027866   14.374999999999998   0                    
91                   91                   Si                   0.9959292143521046   16.674999999999997   0                    
92                   92                   Si                   4.979646071760521    16.674999999999997   0                    
93                   93                   Si                   8.96336292916894     16.674999999999997   0                    
94                   94                   Si                   12.947079786577357   16.674999999999997   0                    
95                   95                   Si                   16.930796643985776   16.674999999999997   0                    
96                   96                   Si                   20.91451350139419    16.674999999999997   0                    
97                   97                   Si                   24.898230358802603   16.674999999999997   0                    
98                   98                   Si                   28.881947216211024   16.674999999999997   0                    
99                   99                   Si                   32.86566407361944    16.674999999999997   0                    
100                  100                  Si                   36.849380931027866   16.674999999999997   0                    
101                  101                  Si                   2.987787643056313    17.825               0                    
102                  102                  Si                   6.97150450046473     17.825               0                    
103                  103                  Si                   10.955221357873148   17.825               0                    
104                  104                  Si                   14.938938215281564   17.825               0                    
105                  105                  Si                   18.92265507268998    17.825               0                    
106                  106                  Si                   22.906371930098402   17.825               0                    
107                  107                  Si                   26.89008878750682    17.825               0                    
108                  108                  Si                   30.873805644915233   17.825               0                    
109                  109                  Si                   34.857522502323654   17.825               0                    
110                  110                  Si                   38.841239359732064   17.825               0                    
111                  111                  Si                   2.987787643056313    20.125               0                    
112                  112                  Si                   6.97150450046473     20.125               0                    
113                  113                  Si                   10.955221357873148   20.125               0                    
114                  114                  Si                   14.938938215281564   20.125               0                    
115                  115                  Si                   18.92265507268998    20.125               0                    
116                  116                  Si                   22.906371930098402   20.125               0                    
117                  117                  Si                   26.89008878750682    20.125               0                    
118                  118                  Si                   30.873805644915233   20.125               0                    
119                  119                  Si                   34.857522502323654   20.125               0                    
120                  120                  Si                   38.841239359732064   20.125               0                    
121                  121                  Si                   0.9959292143521046   21.275               0                    
122                  122                  Si                   4.979646071760521    21.275               0                    
123                  123                  Si                   8.96336292916894     21.275               0                    
124                  124                  Si                   12.947079786577357   21.275               0                    
125                  125                  Si                   16.930796643985776   21.275               0                    
126                  126                  Si                   20.91451350139419    21.275               0                    
127                  127                  Si                   24.898230358802603   21.275               0                    
128                  128                  Si                   28.881947216211024   21.275               0                    
129                  129                  Si                   32.86566407361944    21.275               0                    
130                  130                  Si                   36.849380931027866   21.275               0                    
131                  131                  Si                   0.9959292143521046   23.575               0                    
132                  132                  Si                   4.979646071760521    23.575               0                    
133                  133                  Si                   8.96336292916894     23.575               0                    
134                  134                  Si                   12.947079786577357   23.575               0                    
135                  135                  Si                   16.930796643985776   23.575               0                    
136                  136                  Si                   20.91451350139419    23.575               0                    
137                  137                  Si                   24.898230358802603   23.575               0                    
138                  138                  Si                   28.881947216211024   23.575               0                    
139                  139                  Si                   32.86566407361944    23.575               0                    
140                  140                  Si                   36.849380931027866   23.575               0                    
141                  141                  Si                   2.987787643056313    24.724999999999998   0                    
142                  142                  Si                   6.97150450046473     24.724999999999998   0                    
143                  143                  Si                   10.955221357873148   24.724999999999998   0                    
144                  144                  Si                   14.938938215281564   24.724999999999998   0                    
145                  145                  Si                   18.92265507268998    24.724999999999998   0                    
146                  146                  Si                   22.906371930098402   24.724999999999998   0                    
147                  147                  Si                   26.89008878750682    24.724999999999998   0                    
148                  148                  Si                   30.873805644915233   24.724999999999998   0                    
149                  149                  Si                   34.857522502323654   24.724999999999998   0                    
150                  150                  Si                   38.841239359732064   24.724999999999998   0                    
151                  151                  Si                   2.987787643056313    27.025               0                    
152                  152                  Si                   6.97150450046473     27.025               0                    
153                  153                  Si                   10.955221357873148   27.025               0                    
154                  154                  Si                   14.938938215281564   27.025               0                    
155                  155                  Si                   18.92265507268998    27.025               0                    
156                  156                  Si                   22.906371930098402   27.025               0                    
157                  157                  Si                   26.89008878750682    27.025               0                    
158                  158                  Si                   30.873805644915233   27.025               0                    
159                  159                  Si                   34.857522502323654   27.025               0                    
160                  160                  Si                   38.841239359732064   27.025               0                    
161                  161                  Si                   0.9959292143521046   28.174999999999997   0                    
162                  162                  Si                   4.979646071760521    28.174999999999997   0                    
163                  163                  Si                   8.96336292916894     28.174999999999997   0                    
164                  164                  Si                   12.947079786577357   28.174999999999997   0                    
165                  165                  Si                   16.930796643985776   28.174999999999997   0                    
166                  166                  Si                   20.91451350139419    28.174999999999997   0                    
167                  167                  Si                   24.898230358802603   28.174999999999997   0                    
168                  168                  Si                   28.881947216211024   28.174999999999997   0                    
169                  169                  Si                   32.86566407361944    28.174999999999997   0                    
170                  170                  Si                   36.849380931027866   28.174999999999997   0                    
171                  171                  Si                   0.9959292143521046   30.474999999999998   0                    
172                  172                  Si                   4.979646071760521    30.474999999999998   0                    
173                  173                  Si                   8.96336292916894     30.474999999999998   0                    
174                  174                  Si                   12.947079786577357   30.474999999999998   0                    
175                  175                  Si                   16.930796643985776   30.474999999999998   0                    
176                  176                  Si                   20.91451350139419    30.474999999999998   0                    
177                  177                  Si                   24.898230358802603   30.474999999999998   0                    
178                  178                  Si                   28.881947216211024   30.474999999999998   0                    
179                  179                  Si                   32.86566407361944    30.474999999999998   0                    
180                  180                  Si                   36.849380931027866   30.474999999999998   0                    
181                  181                  Si                   2.987787643056313    31.624999999999996   0                    
182                  182                  Si                   6.97150450046473     31.624999999999996   0                    
183                  183                  Si                   10.955221357873148   31.624999999999996   0                    
184                  184                  Si                   14.938938215281564   31.624999999999996   0                    
185                  185                  Si                   18.92265507268998    31.624999999999996   0                    
186                  186                  Si                   22.906371930098402   31.624999999999996   0                    
187                  187                  Si                   26.89008878750682    31.624999999999996   0                    
188                  188                  Si                   30.873805644915233   31.624999999999996   0                    
189                  189                  Si                   34.857522502323654   31.624999999999996   0                    
190                  190                  Si                   38.841239359732064   31.624999999999996   0                    
191                  191                  Si                   2.987787643056313    33.925               0                    
192                  192                  Si                   6.97150450046473     33.925               0                    
193                  193                  Si                   10.955221357873148   33.925               0                    
194                  194                  Si                   14.938938215281564   33.925               0                    
195                  195                  Si                   18.92265507268998    33.925               0                    
196                  196                  Si                   22.906371930098402   33.925               0                    
197                  197                  Si                   26.89008878750682    33.925               0                    
198                  198                  Si                   30.873805644915233   33.925               0                    
199                  199                  Si                   34.857522502323654   33.925               0                    
200                  200                  Si                   38.841239359732064   33.925               0                    

Bonds

1                    Si-Si                1                    200                  
2                    Si-Si                1                    191                  
3                    Si-Si                1                    11                   
4                    Si-Si                2                    192                  
5                    Si-Si                2                    12                   
6                    Si-Si                2                    191                  
7                    Si-Si                3                    193                  
8                    Si-Si                3                    13                   
9                    Si-Si                3                    192                  
10                   Si-Si                4                    194                  
11                   Si-Si                4                    14                   
12                   Si-Si                4                    193                  
13                   Si-Si                5                    195                  
14                   Si-Si                5                    15                   
15                   Si-Si                5                    194                  
16                   Si-Si                6                    196                  
17                   Si-Si                6                    16                   
18                   Si-Si                6                    195                  
19                   Si-Si                7                    197                  
20                   Si-Si                7                    17                   
21                   Si-Si                7                    196                  
22                   Si-Si                8                    198                  
23                   Si-Si                8                    18                   
24                   Si-Si                8                    197                  
25                   Si-Si                9                    199                  
26                   Si-Si                9                    19                   
27                   Si-Si                9                    198                  
28                   Si-Si                10                   200                  
29                   Si-Si                10                   20                   
30                   Si-Si                10                   199                  
31                   Si-Si                11                   30                   
32                   Si-Si                11                   21                   
33                   Si-Si                12                   22                   
34                   Si-Si                12                   21                   
35                   Si-Si                13                   23                   
36                   Si-Si                13                   22                   
37                   Si-Si                14                   24                   
38                   Si-Si                14                   23                   
39                   Si-Si                15                   25                   
40                   Si-Si                15                   24                   
41                   Si-Si                16                   26                   
42                   Si-Si                16                   25                   
43                   Si-Si                17                   27                   
44                   Si-Si                17                   26                   
45                   Si-Si                18                   28                   
46                   Si-Si                18                   27                   
47                   Si-Si                19                   29                   
48                   Si-Si                19                   28                   
49                   Si-Si                20                   30                   