DATA FILE Produced from netmc results (cf David Morley)
7850 atoms
18840 bonds
0 angles
0 dihedrals
0 impropers
2 atom types
2 bond types
0 angle types
0 dihedral types
0 improper types
0.00000 393.4767696200886 xlo xhi
0.00000 340.7608797791224 ylo yhi

# Pair Coeffs
#
# 1  O
# 2  Si

# Bond Coeffs
# 
# 1  O-O
# 2  Si-O
# 3  O-O rep
# 4  Si-Si rep

 Masses

1 28.10000 # O 
2 32.01000 # Si

 Atoms # molecular

1    1    2    201.65660930528833       177.47962488495958       5.0                      # Si
2    2    2    211.49380796971195       177.47962488495958       5.0                      # Si
3    3    2    221.33043869933593       177.47962488495958       5.0                      # Si
4    4    2    231.1676373637596        177.47962488495958       5.0                      # Si
5    5    2    241.0042680933836        177.47962488495958       5.0                      # Si
6    6    2    250.84146675780718       177.47962488495958       5.0                      # Si
7    7    2    260.6780974874312        177.47962488495958       5.0                      # Si
8    8    2    270.51529615185484       177.47962488495958       5.0                      # Si
9    9    2    280.35192688147885       177.47962488495958       5.0                      # Si
10   10   2    290.1891255459025        177.47962488495958       5.0                      # Si
11   11   2    300.0263242103261        177.47962488495958       5.0                      # Si
12   12   2    309.8629549399501        177.47962488495958       5.0                      # Si
13   13   2    319.7001536043737        177.47962488495958       5.0                      # Si
14   14   2    329.53678433399773       177.47962488495958       5.0                      # Si
15   15   2    339.3739829984214        177.47962488495958       5.0                      # Si
16   16   2    349.2106137280454        177.47962488495958       5.0                      # Si
17   17   2    359.04781239246904       177.47962488495958       5.0                      # Si
18   18   2    368.884443122093         177.47962488495958       5.0                      # Si
19   19   2    378.7216417865166        177.47962488495958       5.0                      # Si
20   20   2    388.5582725161406        177.47962488495958       5.0                      # Si
21   21   2    4.918315364812           177.47962488495958       5.0                      # Si
22   22   2    14.755514029235632       177.47962488495958       5.0                      # Si
23   23   2    24.592144758859632       177.47962488495958       5.0                      # Si
24   24   2    34.429343423283264       177.47962488495958       5.0                      # Si
25   25   2    44.26597415290726        177.47962488495958       5.0                      # Si
26   26   2    54.10317281733091        177.47962488495958       5.0                      # Si
27   27   2    63.9398035469549         177.47962488495958       5.0                      # Si
28   28   2    73.77700221137852        177.47962488495958       5.0                      # Si
29   29   2    83.61363294100254        177.47962488495958       5.0                      # Si
30   30   2    93.45083160542615        177.47962488495958       5.0                      # Si
31   31   2    103.28746233505017       177.47962488495958       5.0                      # Si
32   32   2    113.1246609994738        177.47962488495958       5.0                      # Si
33   33   2    122.9612917290978        177.47962488495958       5.0                      # Si
34   34   2    132.79849039352143       177.47962488495958       5.0                      # Si
35   35   2    142.6351211231454        177.47962488495958       5.0                      # Si
36   36   2    152.47231978756906       177.47962488495958       5.0                      # Si
37   37   2    162.30895051719307       177.47962488495958       5.0                      # Si
38   38   2    172.1461491816167        177.47962488495958       5.0                      # Si
39   39   2    181.9827799112407        177.47962488495958       5.0                      # Si
40   40   2    191.8199785756643        177.47962488495958       5.0                      # Si
41   41   2    196.73829394047632       180.31929888311893       5.0                      # Si
42   42   2    206.57549260489995       180.31929888311893       5.0                      # Si
43   43   2    216.41212333452395       180.31929888311893       5.0                      # Si
44   44   2    226.2493219989476        180.31929888311893       5.0                      # Si
45   45   2    236.0859527285716        180.31929888311893       5.0                      # Si
46   46   2    245.92315139299518       180.31929888311893       5.0                      # Si
47   47   2    255.7597821226192        180.31929888311893       5.0                      # Si
48   48   2    265.59698078704287       180.31929888311893       5.0                      # Si
49   49   2    275.4336115166668        180.31929888311893       5.0                      # Si
50   50   2    285.2708101810905        180.31929888311893       5.0                      # Si
51   51   2    295.1074409107145        180.31929888311893       5.0                      # Si
52   52   2    304.9446395751381        180.31929888311893       5.0                      # Si
53   53   2    314.78127030476213       180.31929888311893       5.0                      # Si
54   54   2    324.61846896918576       180.31929888311893       5.0                      # Si
55   55   2    334.4550996988097        180.31929888311893       5.0                      # Si
56   56   2    344.2922983632334        180.31929888311893       5.0                      # Si
57   57   2    354.1289290928574        180.31929888311893       5.0                      # Si
58   58   2    363.96612775728096       180.31929888311893       5.0                      # Si
59   59   2    373.80275848690496       180.31929888311893       5.0                      # Si
60   60   2    383.6399571513286        180.31929888311893       5.0                      # Si
61   61   2    393.47658788095265       180.31929888311893       5.0                      # Si
62   62   2    9.837198664423632        180.31929888311893       5.0                      # Si
63   63   2    19.673829394047633       180.31929888311893       5.0                      # Si
64   64   2    29.511028058471265       180.31929888311893       5.0                      # Si
65   65   2    39.347658788095266       180.31929888311893       5.0                      # Si
66   66   2    49.18485745251889        180.31929888311893       5.0                      # Si
67   67   2    59.0214881821429         180.31929888311893       5.0                      # Si
68   68   2    68.85868684656653        180.31929888311893       5.0                      # Si
69   69   2    78.69531757619053        180.31929888311893       5.0                      # Si
70   70   2    88.53251624061416        180.31929888311893       5.0                      # Si
71   71   2    98.36914697023816        180.31929888311893       5.0                      # Si
72   72   2    108.20634563466182       180.31929888311893       5.0                      # Si
73   73   2    118.0429763642858        180.31929888311893       5.0                      # Si
74   74   2    127.88017502870943       180.31929888311893       5.0                      # Si
75   75   2    137.7168057583334        180.31929888311893       5.0                      # Si
76   76   2    147.55400442275703       180.31929888311893       5.0                      # Si
77   77   2    157.39063515238107       180.31929888311893       5.0                      # Si
78   78   2    167.2278338168047        180.31929888311893       5.0                      # Si
79   79   2    177.0644645464287        180.31929888311893       5.0                      # Si
80   80   2    186.9016632108523        180.31929888311893       5.0                      # Si
81   81   2    206.57549260489995       185.99864687943767       5.0                      # Si
82   82   2    216.41212333452395       185.99864687943767       5.0                      # Si
83   83   2    226.2493219989476        185.99864687943767       5.0                      # Si
84   84   2    236.0859527285716        185.99864687943767       5.0                      # Si
85   85   2    245.92315139299518       185.99864687943767       5.0                      # Si
86   86   2    255.7597821226192        185.99864687943767       5.0                      # Si
87   87   2    265.59698078704287       185.99864687943767       5.0                      # Si
88   88   2    275.4336115166668        185.99864687943767       5.0                      # Si
89   89   2    285.2708101810905        185.99864687943767       5.0                      # Si
90   90   2    295.1074409107145        185.99864687943767       5.0                      # Si
91   91   2    304.9446395751381        185.99864687943767       5.0                      # Si
92   92   2    314.78127030476213       185.99864687943767       5.0                      # Si
93   93   2    324.61846896918576       185.99864687943767       5.0                      # Si
94   94   2    334.4550996988097        185.99864687943767       5.0                      # Si
95   95   2    344.2922983632334        185.99864687943767       5.0                      # Si
96   96   2    354.1289290928574        185.99864687943767       5.0                      # Si
97   97   2    363.96612775728096       185.99864687943767       5.0                      # Si
98   98   2    373.80275848690496       185.99864687943767       5.0                      # Si
99   99   2    383.6399571513286        185.99864687943767       5.0                      # Si
100  100  2    393.47658788095265       185.99864687943767       5.0                      # Si
101  101  2    9.837198664423632        185.99864687943767       5.0                      # Si
102  102  2    19.673829394047633       185.99864687943767       5.0                      # Si
103  103  2    29.511028058471265       185.99864687943767       5.0                      # Si
104  104  2    39.347658788095266       185.99864687943767       5.0                      # Si
105  105  2    49.18485745251889        185.99864687943767       5.0                      # Si
106  106  2    59.0214881821429         185.99864687943767       5.0                      # Si
107  107  2    68.85868684656653        185.99864687943767       5.0                      # Si
108  108  2    78.69531757619053        185.99864687943767       5.0                      # Si
109  109  2    88.53251624061416        185.99864687943767       5.0                      # Si
110  110  2    98.36914697023816        185.99864687943767       5.0                      # Si
111  111  2    108.20634563466182       185.99864687943767       5.0                      # Si
112  112  2    118.0429763642858        185.99864687943767       5.0                      # Si
113  113  2    127.88017502870943       185.99864687943767       5.0                      # Si
114  114  2    137.7168057583334        185.99864687943767       5.0                      # Si
115  115  2    147.55400442275703       185.99864687943767       5.0                      # Si
116  116  2    157.39063515238107       185.99864687943767       5.0                      # Si
117  117  2    167.2278338168047        185.99864687943767       5.0                      # Si
118  118  2    177.0644645464287        185.99864687943767       5.0                      # Si
119  119  2    186.9016632108523        185.99864687943767       5.0                      # Si
120  120  2    196.73829394047632       185.99864687943767       5.0                      # Si
121  121  2    201.65660930528833       188.838320877597         5.0                      # Si
122  122  2    211.49380796971195       188.838320877597         5.0                      # Si
123  123  2    221.33043869933593       188.838320877597         5.0                      # Si
124  124  2    231.1676373637596        188.838320877597         5.0                      # Si
125  125  2    241.0042680933836        188.838320877597         5.0                      # Si
126  126  2    250.84146675780718       188.838320877597         5.0                      # Si
127  127  2    260.6780974874312        188.838320877597         5.0                      # Si
128  128  2    270.51529615185484       188.838320877597         5.0                      # Si
129  129  2    280.35192688147885       188.838320877597         5.0                      # Si
130  130  2    290.1891255459025        188.838320877597         5.0                      # Si
131  131  2    300.0263242103261        188.838320877597         5.0                      # Si
132  132  2    309.8629549399501        188.838320877597         5.0                      # Si
133  133  2    319.7001536043737        188.838320877597         5.0                      # Si
134  134  2    329.53678433399773       188.838320877597         5.0                      # Si
135  135  2    339.3739829984214        188.838320877597         5.0                      # Si
136  136  2    349.2106137280454        188.838320877597         5.0                      # Si
137  137  2    359.04781239246904       188.838320877597         5.0                      # Si
138  138  2    368.884443122093         188.838320877597         5.0                      # Si
139  139  2    378.7216417865166        188.838320877597         5.0                      # Si
140  140  2    388.5582725161406        188.838320877597         5.0                      # Si
141  141  2    4.918315364812           188.838320877597         5.0                      # Si
142  142  2    14.755514029235632       188.838320877597         5.0                      # Si
143  143  2    24.592144758859632       188.838320877597         5.0                      # Si
144  144  2    34.429343423283264       188.838320877597         5.0                      # Si
145  145  2    44.26597415290726        188.838320877597         5.0                      # Si
146  146  2    54.10317281733091        188.838320877597         5.0                      # Si
147  147  2    63.9398035469549         188.838320877597         5.0                      # Si
148  148  2    73.77700221137852        188.838320877597         5.0                      # Si
149  149  2    83.61363294100254        188.838320877597         5.0                      # Si
150  150  2    93.45083160542615        188.838320877597         5.0                      # Si
151  151  2    103.28746233505017       188.838320877597         5.0                      # Si
152  152  2    113.1246609994738        188.838320877597         5.0                      # Si
153  153  2    122.9612917290978        188.838320877597         5.0                      # Si
154  154  2    132.79849039352143       188.838320877597         5.0                      # Si
155  155  2    142.6351211231454        188.838320877597         5.0                      # Si
156  156  2    152.47231978756906       188.838320877597         5.0                      # Si
157  157  2    162.30895051719307       188.838320877597         5.0                      # Si
158  158  2    172.1461491816167        188.838320877597         5.0                      # Si
159  159  2    181.9827799112407        188.838320877597         5.0                      # Si
160  160  2    191.8199785756643        188.838320877597         5.0                      # Si
161  161  2    201.65660930528833       194.5176688739157        5.0                      # Si
162  162  2    211.49380796971195       194.5176688739157        5.0                      # Si
163  163  2    221.33043869933593       194.5176688739157        5.0                      # Si
164  164  2    231.1676373637596        194.5176688739157        5.0                      # Si
165  165  2    241.0042680933836        194.5176688739157        5.0                      # Si
166  166  2    250.84146675780718       194.5176688739157        5.0                      # Si
167  167  2    260.6780974874312        194.5176688739157        5.0                      # Si
168  168  2    270.51529615185484       194.5176688739157        5.0                      # Si
169  169  2    280.35192688147885       194.5176688739157        5.0                      # Si
170  170  2    290.1891255459025        194.5176688739157        5.0                      # Si
171  171  2    300.0263242103261        194.5176688739157        5.0                      # Si
172  172  2    309.8629549399501        194.5176688739157        5.0                      # Si
173  173  2    319.7001536043737        194.5176688739157        5.0                      # Si
174  174  2    329.53678433399773       194.5176688739157        5.0                      # Si
175  175  2    339.3739829984214        194.5176688739157        5.0                      # Si
176  176  2    349.2106137280454        194.5176688739157        5.0                      # Si
177  177  2    359.04781239246904       194.5176688739157        5.0                      # Si
178  178  2    368.884443122093         194.5176688739157        5.0                      # Si
179  179  2    378.7216417865166        194.5176688739157        5.0                      # Si
180  180  2    388.5582725161406        194.5176688739157        5.0                      # Si
181  181  2    4.918315364812           194.5176688739157        5.0                      # Si
182  182  2    14.755514029235632       194.5176688739157        5.0                      # Si
183  183  2    24.592144758859632       194.5176688739157        5.0                      # Si
184  184  2    34.429343423283264       194.5176688739157        5.0                      # Si
185  185  2    44.26597415290726        194.5176688739157        5.0                      # Si
186  186  2    54.10317281733091        194.5176688739157        5.0                      # Si
187  187  2    63.9398035469549         194.5176688739157        5.0                      # Si
188  188  2    73.77700221137852        194.5176688739157        5.0                      # Si
189  189  2    83.61363294100254        194.5176688739157        5.0                      # Si
190  190  2    93.45083160542615        194.5176688739157        5.0                      # Si
191  191  2    103.28746233505017       194.5176688739157        5.0                      # Si
192  192  2    113.1246609994738        194.5176688739157        5.0                      # Si
193  193  2    122.9612917290978        194.5176688739157        5.0                      # Si
194  194  2    132.79849039352143       194.5176688739157        5.0                      # Si
195  195  2    142.6351211231454        194.5176688739157        5.0                      # Si
196  196  2    152.47231978756906       194.5176688739157        5.0                      # Si
197  197  2    162.30895051719307       194.5176688739157        5.0                      # Si
198  198  2    172.1461491816167        194.5176688739157        5.0                      # Si
199  199  2    181.9827799112407        194.5176688739157        5.0                      # Si
200  200  2    191.8199785756643        194.5176688739157        5.0                      # Si
201  201  2    196.73829394047632       197.35734287207504       5.0                      # Si
202  202  2    206.57549260489995       197.35734287207504       5.0                      # Si
203  203  2    216.41212333452395       197.35734287207504       5.0                      # Si
204  204  2    226.2493219989476        197.35734287207504       5.0                      # Si
205  205  2    236.0859527285716        197.35734287207504       5.0                      # Si
206  206  2    245.92315139299518       197.35734287207504       5.0                      # Si
207  207  2    255.7597821226192        197.35734287207504       5.0                      # Si
208  208  2    265.59698078704287       197.35734287207504       5.0                      # Si
209  209  2    275.4336115166668        197.35734287207504       5.0                      # Si
210  210  2    285.2708101810905        197.35734287207504       5.0                      # Si
211  211  2    295.1074409107145        197.35734287207504       5.0                      # Si
212  212  2    304.9446395751381        197.35734287207504       5.0                      # Si
213  213  2    314.78127030476213       197.35734287207504       5.0                      # Si
214  214  2    324.61846896918576       197.35734287207504       5.0                      # Si
215  215  2    334.4550996988097        197.35734287207504       5.0                      # Si
216  216  2    344.2922983632334        197.35734287207504       5.0                      # Si
217  217  2    354.1289290928574        197.35734287207504       5.0                      # Si
218  218  2    363.96612775728096       197.35734287207504       5.0                      # Si
219  219  2    373.80275848690496       197.35734287207504       5.0                      # Si
220  220  2    383.6399571513286        197.35734287207504       5.0                      # Si
221  221  2    393.47658788095265       197.35734287207504       5.0                      # Si
222  222  2    9.837198664423632        197.35734287207504       5.0                      # Si
223  223  2    19.673829394047633       197.35734287207504       5.0                      # Si
224  224  2    29.511028058471265       197.35734287207504       5.0                      # Si
225  225  2    39.347658788095266       197.35734287207504       5.0                      # Si
226  226  2    49.18485745251889        197.35734287207504       5.0                      # Si
227  227  2    59.0214881821429         197.35734287207504       5.0                      # Si
228  228  2    68.85868684656653        197.35734287207504       5.0                      # Si
229  229  2    78.69531757619053        197.35734287207504       5.0                      # Si
230  230  2    88.53251624061416        197.35734287207504       5.0                      # Si
231  231  2    98.36914697023816        197.35734287207504       5.0                      # Si
232  232  2    108.20634563466182       197.35734287207504       5.0                      # Si
233  233  2    118.0429763642858        197.35734287207504       5.0                      # Si
234  234  2    127.88017502870943       197.35734287207504       5.0                      # Si
235  235  2    137.7168057583334        197.35734287207504       5.0                      # Si
236  236  2    147.55400442275703       197.35734287207504       5.0                      # Si
237  237  2    157.39063515238107       197.35734287207504       5.0                      # Si
238  238  2    167.2278338168047        197.35734287207504       5.0                      # Si
239  239  2    177.0644645464287        197.35734287207504       5.0                      # Si
240  240  2    186.9016632108523        197.35734287207504       5.0                      # Si
241  241  2    206.57549260489995       203.03669086839378       5.0                      # Si
242  242  2    216.41212333452395       203.03669086839378       5.0                      # Si
243  243  2    226.2493219989476        203.03669086839378       5.0                      # Si
244  244  2    236.0859527285716        203.03669086839378       5.0                      # Si
245  245  2    245.92315139299518       203.03669086839378       5.0                      # Si
246  246  2    255.7597821226192        203.03669086839378       5.0                      # Si
247  247  2    265.59698078704287       203.03669086839378       5.0                      # Si
248  248  2    275.4336115166668        203.03669086839378       5.0                      # Si
249  249  2    285.2708101810905        203.03669086839378       5.0                      # Si
250  250  2    295.1074409107145        203.03669086839378       5.0                      # Si
251  251  2    304.9446395751381        203.03669086839378       5.0                      # Si
252  252  2    314.78127030476213       203.03669086839378       5.0                      # Si
253  253  2    324.61846896918576       203.03669086839378       5.0                      # Si
254  254  2    334.4550996988097        203.03669086839378       5.0                      # Si
255  255  2    344.2922983632334        203.03669086839378       5.0                      # Si
256  256  2    354.1289290928574        203.03669086839378       5.0                      # Si
257  257  2    363.96612775728096       203.03669086839378       5.0                      # Si
258  258  2    373.80275848690496       203.03669086839378       5.0                      # Si
259  259  2    383.6399571513286        203.03669086839378       5.0                      # Si
260  260  2    393.47658788095265       203.03669086839378       5.0                      # Si
261  261  2    9.837198664423632        203.03669086839378       5.0                      # Si
262  262  2    19.673829394047633       203.03669086839378       5.0                      # Si
263  263  2    29.511028058471265       203.03669086839378       5.0                      # Si
264  264  2    39.347658788095266       203.03669086839378       5.0                      # Si
265  265  2    49.18485745251889        203.03669086839378       5.0                      # Si
266  266  2    59.0214881821429         203.03669086839378       5.0                      # Si
267  267  2    68.85868684656653        203.03669086839378       5.0                      # Si
268  268  2    78.69531757619053        203.03669086839378       5.0                      # Si
269  269  2    88.53251624061416        203.03669086839378       5.0                      # Si
270  270  2    98.36914697023816        203.03669086839378       5.0                      # Si
271  271  2    108.20634563466182       203.03669086839378       5.0                      # Si
272  272  2    118.0429763642858        203.03669086839378       5.0                      # Si
273  273  2    127.88017502870943       203.03669086839378       5.0                      # Si
274  274  2    137.7168057583334        203.03669086839378       5.0                      # Si
275  275  2    147.55400442275703       203.03669086839378       5.0                      # Si
276  276  2    157.39063515238107       203.03669086839378       5.0                      # Si
277  277  2    167.2278338168047        203.03669086839378       5.0                      # Si
278  278  2    177.0644645464287        203.03669086839378       5.0                      # Si
279  279  2    186.9016632108523        203.03669086839378       5.0                      # Si
280  280  2    196.73829394047632       203.03669086839378       5.0                      # Si
281  281  2    201.65660930528833       205.8763648665531        5.0                      # Si
282  282  2    211.49380796971195       205.8763648665531        5.0                      # Si
283  283  2    221.33043869933593       205.8763648665531        5.0                      # Si
284  284  2    231.1676373637596        205.8763648665531        5.0                      # Si
285  285  2    241.0042680933836        205.8763648665531        5.0                      # Si
286  286  2    250.84146675780718       205.8763648665531        5.0                      # Si
287  287  2    260.6780974874312        205.8763648665531        5.0                      # Si
288  288  2    270.51529615185484       205.8763648665531        5.0                      # Si
289  289  2    280.35192688147885       205.8763648665531        5.0                      # Si
290  290  2    290.1891255459025        205.8763648665531        5.0                      # Si
291  291  2    300.0263242103261        205.8763648665531        5.0                      # Si
292  292  2    309.8629549399501        205.8763648665531        5.0                      # Si
293  293  2    319.7001536043737        205.8763648665531        5.0                      # Si
294  294  2    329.53678433399773       205.8763648665531        5.0                      # Si
295  295  2    339.3739829984214        205.8763648665531        5.0                      # Si
296  296  2    349.2106137280454        205.8763648665531        5.0                      # Si
297  297  2    359.04781239246904       205.8763648665531        5.0                      # Si
298  298  2    368.884443122093         205.8763648665531        5.0                      # Si
299  299  2    378.7216417865166        205.8763648665531        5.0                      # Si
300  300  2    388.5582725161406        205.8763648665531        5.0                      # Si
301  301  2    4.918315364812           205.8763648665531        5.0                      # Si
302  302  2    14.755514029235632       205.8763648665531        5.0                      # Si
303  303  2    24.592144758859632       205.8763648665531        5.0                      # Si
304  304  2    34.429343423283264       205.8763648665531        5.0                      # Si
305  305  2    44.26597415290726        205.8763648665531        5.0                      # Si
306  306  2    54.10317281733091        205.8763648665531        5.0                      # Si
307  307  2    63.9398035469549         205.8763648665531        5.0                      # Si
308  308  2    73.77700221137852        205.8763648665531        5.0                      # Si
309  309  2    83.61363294100254        205.8763648665531        5.0                      # Si
310  310  2    93.45083160542615        205.8763648665531        5.0                      # Si
311  311  2    103.28746233505017       205.8763648665531        5.0                      # Si